 Gaussian 16, Revision A.03,
 Gaussian 16:  ES64L-G16RevA.03 25-Dec-2016

 ----------------------
 # b3lyp/6-31g opt freq
 ----------------------

 --------------
 9_hexagons5196
 --------------
 Symbolic Z-matrix:
 Charge =  0 Multiplicity = 1

 SCF Done:  E(RB3LYP) =  -1378.90748608     A.U. after   34 cycles
 SCF Done:  E(RB3LYP) =  -1379.29397021     A.U. after   33 cycles
 SCF Done:  E(RB3LYP) =  -1380.00471944     A.U. after   19 cycles
 SCF Done:  E(RB3LYP) =  -1380.64769334     A.U. after   15 cycles
 SCF Done:  E(RB3LYP) =  -1381.22064811     A.U. after   15 cycles
 SCF Done:  E(RB3LYP) =  -1381.30974854     A.U. after   14 cycles
 SCF Done:  E(RB3LYP) =  -1381.32242628     A.U. after   14 cycles
 SCF Done:  E(RB3LYP) =  -1381.32308425     A.U. after   14 cycles
 SCF Done:  E(RB3LYP) =  -1381.32315895     A.U. after   10 cycles
 SCF Done:  E(RB3LYP) =  -1381.32319723     A.U. after    9 cycles
 SCF Done:  E(RB3LYP) =  -1381.32320227     A.U. after    8 cycles
 Optimization completed.
    -- Stationary point found.
 Normal termination of Gaussian 16 at Mon Aug 24 06:27:45 2020.

 -----------------------------------------------------------------
 #N Geom=AllCheck Guess=TCheck SCRF=Check GenChk RB3LYP/6-31G Freq
 -----------------------------------------------------------------

 Structure from the checkpoint file:  "9_hexagons5196.chk"
 --------------
 9_hexagons5196
 --------------
 Charge =  0 Multiplicity = 1

                         Standard orientation:
 ---------------------------------------------------------------------
 Center     Atomic      Atomic             Coordinates (Angstroms)
 Number     Number       Type             X           Y           Z
 ---------------------------------------------------------------------
      1          6           0        0.404922   -4.608910    0.000000
      2          6           0       -0.215482   -3.349673    0.000000
      3          6           0        1.792837   -4.727807    0.000000
      4          6           0        0.604220   -2.175390    0.000000
      5          6           0       -1.678402   -3.219035    0.000000
      6          6           0       -2.533275   -4.331097    0.000000
      7          6           0       -2.256769   -1.912788    0.000000
      8          6           0       -3.928338   -4.185415    0.000000
      9          6           0        2.593549   -3.591085    0.000000
     10          6           0        2.027420   -2.302429    0.000000
     11          6           0        2.864358   -1.098822    0.000000
     12          6           0       -0.000000   -0.862445    0.000000
     13          6           0        4.269624   -1.181101    0.000000
     14          6           0        5.056142   -0.034664    0.000000
     15          6           0        2.250016    0.191136   -0.000000
     16          6           0        4.461597    1.225268   -0.000000
     17          6           0       -3.685455   -1.768918    0.000000
     18          6           0       -1.428685   -0.742027    0.000000
     19          6           0       -4.501875   -2.924003    0.000000
     20          6           0       -4.254962   -0.466438    0.000000
     21          6           0        0.808606    0.300405   -0.000000
     22          6           0       -2.029876    0.545981   -0.000000
     23          6           0        3.065267    1.368386   -0.000000
     24          6           0        0.198106    1.597569   -0.000000
     25          6           0       -3.471825    0.671372   -0.000000
     26          6           0       -1.218736    1.712518   -0.000000
     27          6           0       -4.056896    1.994673   -0.000000
     28          6           0        1.007132    2.781565   -0.000000
     29          6           0       -1.838229    3.020519   -0.000000
     30          6           0        2.433024    2.694667   -0.000000
     31          6           0        3.177170    3.883393   -0.000000
     32          6           0        0.374596    4.070664   -0.000000
     33          6           0        2.554649    5.140632   -0.000000
     34          6           0       -3.282203    3.108678   -0.000000
     35          6           0       -1.044328    4.151020   -0.000000
     36          6           0        1.172714    5.238824   -0.000000
     37          1           0        2.250662   -5.711647    0.000000
     38          1           0        3.667743   -3.717995    0.000000
     39          1           0       -0.191295   -5.511950    0.000000
     40          1           0       -2.125949   -5.334032    0.000000
     41          1           0       -5.581069   -2.805907    0.000000
     42          1           0       -4.556353   -5.070234    0.000000
     43          1           0        4.762564   -2.144105    0.000000
     44          1           0        6.137641   -0.121412    0.000000
     45          1           0        5.100541    2.098695   -0.000000
     46          1           0       -5.337449   -0.372817    0.000000
     47          1           0       -3.731204    4.097502   -0.000000
     48          1           0       -5.139949    2.071511   -0.000000
     49          1           0       -1.509445    5.133151   -0.000000
     50          1           0        4.259078    3.851229   -0.000000
     51          1           0        3.165268    6.037533   -0.000000
     52          1           0        0.685521    6.209148   -0.000000
 ---------------------------------------------------------------------

 SCF Done:  E(RB3LYP) =  -1381.32320227     A.U. after    1 cycles

 The electronic state is 1-A'.
 Alpha  occ. eigenvalues --  -10.20336 -10.20331 -10.20320 -10.20316 -10.20307
 Alpha  occ. eigenvalues --  -10.20285 -10.20274 -10.20264 -10.20248 -10.20245
 Alpha  occ. eigenvalues --  -10.20195 -10.20194 -10.20056 -10.20042 -10.20041
 Alpha  occ. eigenvalues --  -10.20026 -10.20000 -10.19996 -10.19945 -10.19944
 Alpha  occ. eigenvalues --  -10.19181 -10.19116 -10.19030 -10.19029 -10.19026
 Alpha  occ. eigenvalues --  -10.19025 -10.18927 -10.18926 -10.18910 -10.18909
 Alpha  occ. eigenvalues --  -10.18894 -10.18892 -10.18891 -10.18888 -10.18876
 Alpha  occ. eigenvalues --  -10.18873  -0.91255  -0.88896  -0.88401  -0.85967
 Alpha  occ. eigenvalues --   -0.85629  -0.84063  -0.82358  -0.80523  -0.80312
 Alpha  occ. eigenvalues --   -0.79072  -0.77471  -0.75983  -0.75326  -0.74500
 Alpha  occ. eigenvalues --   -0.73505  -0.73313  -0.71005  -0.70183  -0.64925
 Alpha  occ. eigenvalues --   -0.64801  -0.64749  -0.64352  -0.64227  -0.61814
 Alpha  occ. eigenvalues --   -0.60585  -0.58981  -0.57827  -0.57327  -0.55042
 Alpha  occ. eigenvalues --   -0.54971  -0.53177  -0.52701  -0.51957  -0.51170
 Alpha  occ. eigenvalues --   -0.50266  -0.48690  -0.47872  -0.47799  -0.47267
 Alpha  occ. eigenvalues --   -0.46341  -0.46068  -0.44628  -0.44020  -0.43569
 Alpha  occ. eigenvalues --   -0.43303  -0.42972  -0.42784  -0.42676  -0.42374
 Alpha  occ. eigenvalues --   -0.41177  -0.41121  -0.40454  -0.39902  -0.39879
 Alpha  occ. eigenvalues --   -0.39848  -0.38436  -0.37816  -0.37626  -0.36857
 Alpha  occ. eigenvalues --   -0.36438  -0.36324  -0.36071  -0.35261  -0.34791
 Alpha  occ. eigenvalues --   -0.34313  -0.33870  -0.32543  -0.31496  -0.30995
 Alpha  occ. eigenvalues --   -0.30948  -0.30489  -0.28971  -0.27140  -0.25989
 Alpha  occ. eigenvalues --   -0.25257  -0.24844  -0.23437  -0.22889  -0.20116
 Alpha  occ. eigenvalues --   -0.17818
 Alpha virt. eigenvalues --   -0.07732  -0.05654  -0.02759  -0.02591  -0.01402
 Alpha virt. eigenvalues --   -0.00529   0.00573   0.01911   0.03994   0.05697
 Alpha virt. eigenvalues --    0.07048   0.08797   0.09133   0.09546   0.10079

 Mulliken charges:
               1
     1  C   -0.158430
     2  C    0.038040
     3  C   -0.126339
     4  C   -0.002762
     5  C    0.049877
     6  C   -0.169994
     7  C   -0.030356
     8  C   -0.124567
     9  C   -0.153050
    10  C    0.027726
    11  C    0.027380
    12  C   -0.010043
    13  C   -0.152848
    14  C   -0.126420
    15  C   -0.002170
    16  C   -0.158538
    17  C    0.099777
    18  C   -0.004127
    19  C   -0.165314
    20  C   -0.260838
    21  C   -0.010070
    22  C   -0.044346
    23  C    0.038170
    24  C   -0.004468
    25  C    0.128189
    26  C   -0.043691
    27  C   -0.145670
    28  C   -0.030396
    29  C    0.127637
    30  C    0.050422
    31  C   -0.170339
    32  C    0.099356
    33  C   -0.124578
    34  C   -0.145669
    35  C   -0.260823
    36  C   -0.164935
    37  H    0.127552
    38  H    0.134466
    39  H    0.134301
    40  H    0.132633
    41  H    0.130043
    42  H    0.126673
    43  H    0.134577
    44  H    0.127474
    45  H    0.134327
    46  H    0.134155
    47  H    0.132269
    48  H    0.132188
    49  H    0.134208
    50  H    0.132530
    51  H    0.126687
    52  H    0.130125
 Sum of Mulliken charges =  -0.00000

 Dipole moment (field-independent basis, Debye):
    X=              0.1562    Y=             -0.1078    Z=              0.0000  Tot=              0.1898
 Quadrupole moment (field-independent basis, Debye-Ang):
   XX=           -172.6691   YY=           -172.5501   ZZ=           -212.1128
   XY=              0.1337   XZ=             -0.0000   YZ=              0.0000

  Exact polarizability: 584.045  85.064 647.239   0.000   0.000  91.982
 Approx polarizability:1125.944 230.7651297.183  -0.000  -0.000 137.300

                      1                      2                      3
                     A"                     A"                     A"
 Frequencies --     27.9343                34.7425                90.6632
 Red. masses --      5.0708                 5.4098                 4.8491
 Frc consts  --      0.0023                 0.0038                 0.0235
 IR Inten    --      0.0000                 0.0237                 0.0034

                      4                      5                      6
                     A"                     A"                     A"
 Frequencies --     93.8294               121.6355               131.7421
 Red. masses --      5.5668                 4.4377                 4.3724
 Frc consts  --      0.0289                 0.0387                 0.0447
 IR Inten    --      3.0867                 0.0013                 0.0001

                      7                      8                      9
                     A"                     A"                     A"
 Frequencies --    138.3081               207.7113               234.3298
 Red. masses --      4.2023                 3.5945                 5.4104
 Frc consts  --      0.0474                 0.0914                 0.1750
 IR Inten    --      0.3653                 0.0000                 0.0224

                     10                     11                     12
                     A"                     A'                     A"
 Frequencies --    248.8143               263.5151               264.9550
 Red. masses --      4.8064                 5.7476                 4.2740
 Frc consts  --      0.1753                 0.2352                 0.1768
 IR Inten    --      0.0000                 0.8448                 0.5643

                     13                     14                     15
                     A'                     A'                     A'
 Frequencies --    297.9198               308.3411               311.9810
 Red. masses --      8.4892                 5.9346                 7.6607
 Frc consts  --      0.4439                 0.3324                 0.4393
 IR Inten    --      0.1894                 0.4850                 0.0157

                     16                     17                     18
                     A"                     A"                     A'
 Frequencies --    330.2375               348.3859               350.6407
 Red. masses --      4.7974                 5.8015                 4.9327
 Frc consts  --      0.3083                 0.4149                 0.3573
 IR Inten    --      0.0112                 0.0000                 0.0397

                     19                     20                     21
                     A"                     A"                     A'
 Frequencies --    368.2701               370.1150               390.3057
 Red. masses --      5.0464                 5.4170                 7.6755
 Frc consts  --      0.4032                 0.4372                 0.6889
 IR Inten    --      0.0017                 2.5077                 0.0042

                     22                     23                     24
                     A'                     A"                     A'
 Frequencies --    394.1526               436.3338               446.5175
 Red. masses --      5.1620                 4.4162                 7.5816
 Frc consts  --      0.4725                 0.4954                 0.8906
 IR Inten    --      3.5042                 0.0000                 0.6523

                     25                     26                     27
                     A'                     A"                     A'
 Frequencies --    469.3401               489.0982               515.5810
 Red. masses --      7.8054                 4.3839                 5.4623
 Frc consts  --      1.0130                 0.6179                 0.8555
 IR Inten    --      0.6883                 0.0966                 0.5179

                     28                     29                     30
                     A"                     A"                     A'
 Frequencies --    516.5553               534.3932               552.2252
 Red. masses --      3.5314                 3.9416                 6.1815
 Frc consts  --      0.5552                 0.6632                 1.1106
 IR Inten    --      0.0000                 0.5683                 3.5212

                     31                     32                     33
                     A"                     A'                     A"
 Frequencies --    553.3155               558.9185               559.7374
 Red. masses --      3.9633                 5.8394                 3.9032
 Frc consts  --      0.7149                 1.0748                 0.7205
 IR Inten    --      3.6605                 0.1586                 0.0000

                     34                     35                     36
                     A"                     A'                     A'
 Frequencies --    584.7506               584.8462               598.2769
 Red. masses --      4.1032                 5.8135                 8.0463
 Frc consts  --      0.8266                 1.1716                 1.6969
 IR Inten    --      0.0000                 0.4085                 0.0028

                     37                     38                     39
                     A"                     A"                     A'
 Frequencies --    604.6705               615.0187               629.0772
 Red. masses --      4.1056                 4.5821                 8.7231
 Frc consts  --      0.8844                 1.0212                 2.0339
 IR Inten    --      1.3023                 0.0000                 0.0276

                     40                     41                     42
                     A"                     A'                     A'
 Frequencies --    642.5342               654.5733               668.1102
 Red. masses --      4.4278                 6.9144                 6.3463
 Frc consts  --      1.0770                 1.7455                 1.6690
 IR Inten    --      2.9088                 0.2239                 0.7150

                     43                     44                     45
                     A"                     A'                     A"
 Frequencies --    674.5650               677.9865               681.4277
 Red. masses --      5.2964                 6.7266                 4.2446
 Frc consts  --      1.4200                 1.8218                 1.1613
 IR Inten    --      0.0000                 1.5350                 0.0000

                     46                     47                     48
                     A"                     A'                     A'
 Frequencies --    688.8866               705.3100               725.2934
 Red. masses --      3.6202                 7.2059                 7.5255
 Frc consts  --      1.0122                 2.1120                 2.3325
 IR Inten    --      0.1781                 3.8979                 1.3255

                     49                     50                     51
                     A'                     A"                     A"
 Frequencies --    735.9189               741.2555               753.5069
 Red. masses --      6.9644                 2.2195                 3.1194
 Frc consts  --      2.2222                 0.7185                 1.0435
 IR Inten    --      3.0956                 0.0000                 2.3439

                     52                     53                     54
                     A"                     A"                     A"
 Frequencies --    759.9406               771.6721               777.3449
 Red. masses --      2.8571                 2.9445                 4.3387
 Frc consts  --      0.9722                 1.0331                 1.5447
 IR Inten    --      0.0001                26.5213                 0.0001

                     55                     56                     57
                     A"                     A'                     A"
 Frequencies --    802.9291               813.1286               817.6183
 Red. masses --      1.3631                 6.7991                 1.7958
 Frc consts  --      0.5178                 2.6486                 0.7073
 IR Inten    --    134.2770                 0.0256                 0.0248

                     58                     59                     60
                     A"                     A"                     A"
 Frequencies --    820.0864               841.1887               842.4816
 Red. masses --      1.6080                 1.9556                 2.6963
 Frc consts  --      0.6372                 0.8153                 1.1276
 IR Inten    --     16.2147                 0.7470                 0.0003

                     61                     62                     63
                     A'                     A'                     A'
 Frequencies --    850.6799               869.5828               894.9697
 Red. masses --      6.3880                 6.9568                 6.3123
 Frc consts  --      2.7236                 3.0994                 2.9789
 IR Inten    --      0.0402                 1.1142                 0.0575

                     64                     65                     66
                     A"                     A"                     A"
 Frequencies --    902.6492               910.0933               914.1460
 Red. masses --      1.5447                 1.4967                 1.5090
 Frc consts  --      0.7415                 0.7304                 0.7430
 IR Inten    --      0.0062                25.1687                 0.0043

                     67                     68                     69
                     A'                     A"                     A"
 Frequencies --    920.9324               928.3631               935.3807
 Red. masses --      6.7998                 1.4106                 1.4988
 Frc consts  --      3.3978                 0.7163                 0.7726
 IR Inten    --      1.7636                15.8004                 0.0051

                     70                     71                     72
                     A'                     A"                     A'
 Frequencies --    941.6660               942.7072               973.8091
 Red. masses --      7.2811                 1.5359                 5.9663
 Frc consts  --      3.8040                 0.8042                 3.3335
 IR Inten    --      0.5264                45.7657                 1.2321

                     73                     74                     75
                     A"                     A"                     A"
 Frequencies --    994.7443              1001.9159              1006.1070
 Red. masses --      1.3737                 1.3507                 1.3360
 Frc consts  --      0.8009                 0.7989                 0.7968
 IR Inten    --      0.0003                 0.2619                 0.0004

                     76                     77                     78
                     A"                     A'                     A"
 Frequencies --   1008.0228              1008.4168              1013.9477
 Red. masses --      1.3331                 5.0635                 1.3620
 Frc consts  --      0.7981                 3.0338                 0.8250
 IR Inten    --      3.9364                 0.1997                 0.0009

                     79                     80                     81
                     A'                     A'                     A'
 Frequencies --   1062.2087              1079.1856              1112.8012
 Red. masses --      7.5416                 5.8155                 3.6891
 Frc consts  --      5.0134                 3.9905                 2.6915
 IR Inten    --      1.0724                 0.2287                 0.6028

                     82                     83                     84
                     A'                     A'                     A'
 Frequencies --   1130.2831              1140.1714              1146.4041
 Red. masses --      2.0584                 2.6238                 2.9328
 Frc consts  --      1.5494                 2.0097                 2.2709
 IR Inten    --      0.3871                 9.2214                 5.8076

                     85                     86                     87
                     A'                     A'                     A'
 Frequencies --   1152.4391              1167.5333              1192.5035
 Red. masses --      1.9034                 2.6953                 2.2960
 Frc consts  --      1.4894                 2.1647                 1.9237
 IR Inten    --      1.7416                 0.7828                 0.0032

                     88                     89                     90
                     A'                     A'                     A'
 Frequencies --   1209.1227              1221.4088              1232.8385
 Red. masses --      1.4038                 1.3818                 1.4207
 Frc consts  --      1.2092                 1.2145                 1.2722
 IR Inten    --      2.5145                 0.4447                 0.0207

                     91                     92                     93
                     A'                     A'                     A'
 Frequencies --   1248.8564              1252.3437              1259.2464
 Red. masses --      1.3727                 1.5603                 1.4887
 Frc consts  --      1.2614                 1.4418                 1.3908
 IR Inten    --      1.2236                 0.9479                 1.6717

                     94                     95                     96
                     A'                     A'                     A'
 Frequencies --   1262.0662              1280.4478              1285.1645
 Red. masses --      1.3590                 1.8944                 2.5385
 Frc consts  --      1.2754                 1.8300                 2.4703
 IR Inten    --      0.7479                 0.3360                 7.6586

                     97                     98                     99
                     A'                     A'                     A'
 Frequencies --   1302.8890              1323.4228              1331.6593
 Red. masses --      3.0212                 2.1872                 3.6315
 Frc consts  --      3.0217                 2.2571                 3.7942
 IR Inten    --      4.3021                 2.9483                 0.8028

                    100                    101                    102
                     A'                     A'                     A'
 Frequencies --   1347.1406              1352.7958              1357.8091
 Red. masses --      3.3987                 3.3328                 3.4656
 Frc consts  --      3.6340                 3.5936                 3.7645
 IR Inten    --      0.1887                 3.8616                 0.0159

                    103                    104                    105
                     A'                     A'                     A'
 Frequencies --   1378.2236              1382.5324              1384.5802
 Red. masses --      4.3794                 4.8990                 6.4939
 Frc consts  --      4.9012                 5.5171                 7.3348
 IR Inten    --      4.1686                 0.8774                 0.0270

                    106                    107                    108
                     A'                     A'                     A'
 Frequencies --   1395.0089              1407.1569              1407.4254
 Red. masses --      4.5018                 4.0788                 7.2023
 Frc consts  --      5.1617                 4.7585                 8.4057
 IR Inten    --      5.2189                 4.9085                 0.2251

                    109                    110                    111
                     A'                     A'                     A'
 Frequencies --   1435.2732              1437.0040              1443.0698
 Red. masses --      5.7923                 2.7365                 5.1700
 Frc consts  --      7.0302                 3.3293                 6.3433
 IR Inten    --      4.7425                25.4969                 0.4888

                    112                    113                    114
                     A'                     A'                     A'
 Frequencies --   1444.6882              1452.2263              1479.0635
 Red. masses --      5.2725                 3.4181                 1.7229
 Frc consts  --      6.4835                 4.2472                 2.2207
 IR Inten    --      0.1088                 0.0427                 0.1687

                    115                    116                    117
                     A'                     A'                     A'
 Frequencies --   1484.2244              1486.9850              1509.1410
 Red. masses --      4.0178                 3.6354                 4.2387
 Frc consts  --      5.2148                 4.7360                 5.6878
 IR Inten    --      8.9205                 8.9993                 0.3696

                    118                    119                    120
                     A'                     A'                     A'
 Frequencies --   1519.6777              1526.1407              1538.4786
 Red. masses --      2.9109                 2.6909                 3.1391
 Frc consts  --      3.9607                 3.6927                 4.3776
 IR Inten    --      5.1662                 2.4430                 1.9048

                    121                    122                    123
                     A'                     A'                     A'
 Frequencies --   1552.2093              1563.4303              1567.7538
 Red. masses --      4.5482                 4.1412                 3.8746
 Frc consts  --      6.4564                 5.9640                 5.6109
 IR Inten    --      0.0439                 2.2535                 2.0814

                    124                    125                    126
                     A'                     A'                     A'
 Frequencies --   1590.4674              1630.9597              1632.3020
 Red. masses --      4.5430                 7.0373                 5.5095
 Frc consts  --      6.7709                11.0292                 8.6490
 IR Inten    --      0.1345                 1.7193                 4.2150

                    127                    128                    129
                     A'                     A'                     A'
 Frequencies --   1636.4100              1640.2241              1650.1989
 Red. masses --      6.4860                 6.1633                 5.2285
 Frc consts  --     10.2332                 9.7695                 8.3887
 IR Inten    --      0.6401                 7.7878                17.5079

                    130                    131                    132
                     A'                     A'                     A'
 Frequencies --   1651.8510              1657.0843              1657.8754
 Red. masses --      4.2364                 6.7284                 6.5180
 Frc consts  --      6.8107                10.8856                10.5552
 IR Inten    --     12.7428                 0.1486                 0.1658

                    133                    134                    135
                     A'                     A'                     A'
 Frequencies --   1679.6784              1689.2191              3185.9027
 Red. masses --      7.1900                 6.8823                 1.0879
 Frc consts  --     11.9518                11.5706                 6.5059
 IR Inten    --      7.0772                 1.7932                 1.0753

                    136                    137                    138
                     A'                     A'                     A'
 Frequencies --   3188.1732              3189.8782              3193.4343
 Red. masses --      1.0897                 1.0891                 1.0869
 Frc consts  --      6.5259                 6.5291                 6.5306
 IR Inten    --     14.8917                 4.9074                 5.5490

                    139                    140                    141
                     A'                     A'                     A'
 Frequencies --   3194.1070              3200.4009              3202.4694
 Red. masses --      1.0869                 1.0877                 1.0882
 Frc consts  --      6.5333                 6.5642                 6.5755
 IR Inten    --      4.8950                 9.6037                33.4389

                    142                    143                    144
                     A'                     A'                     A'
 Frequencies --   3210.1335              3212.0810              3212.4073
 Red. masses --      1.0975                 1.0933                 1.0935
 Frc consts  --      6.6635                 6.6463                 6.6484
 IR Inten    --     43.2106                80.5394                30.3720

                    145                    146                    147
                     A'                     A'                     A'
 Frequencies --   3227.8076              3229.5548              3234.3907
 Red. masses --      1.0934                 1.0951                 1.0956
 Frc consts  --      6.7122                 6.7295                 6.7529
 IR Inten    --      4.8209                 0.3545                 4.7780

                    148                    149                    150
                     A'                     A'                     A'
 Frequencies --   3246.7283              3247.6639              3254.0776
 Red. masses --      1.0890                 1.0907                 1.0905
 Frc consts  --      6.7633                 6.7778                 6.8037
 IR Inten    --      3.9432                64.7176                47.4356

 - Thermochemistry -
 -------------------
 Temperature   298.150 Kelvin.  Pressure   1.00000 Atm.
 Atom     1 has atomic number  6 and mass  12.00000

 Molecular mass:   448.12520 amu.
 Principal axes and moments of inertia in atomic units:
                           1         2         3
     Eigenvalues --  ******************************
           X            0.57073   0.82114   0.00000
           Y            0.82114  -0.57073   0.00000
           Z            0.00000   0.00000   1.00000
 This molecule is an asymmetric top.
 Rotational symmetry number  1.
 Warning -- assumption of classical behavior for rotation
           may cause significant error
 Rotational temperatures (Kelvin)      0.00815     0.00574     0.00337
 Rotational constants (GHZ):           0.16988     0.11967     0.07021
 Zero-point vibrational energy    1058585.0 (Joules/Mol)
                                  253.00789 (Kcal/Mol)
 Warning -- explicit consideration of  38 degrees of freedom as
           vibrations may cause significant error
 Vibrational temperatures:     40.19    49.99   130.44   135.00   175.01
          (Kelvin)            189.55   198.99   298.85   337.15   357.99
                              379.14   381.21   428.64   443.63   448.87
                              475.14   501.25   504.49   529.86   532.51
                              561.56   567.10   627.79   642.44   675.28
                              703.70   741.81   743.21   768.87   794.53
                              796.10   804.16   805.34   841.33   841.46
                              860.79   869.99   884.87   905.10   924.46
                              941.79   961.26   970.55   975.47   980.42
                              991.15  1014.78  1043.54  1058.82  1066.50
                             1084.13  1093.38  1110.26  1118.43  1155.24
                             1169.91  1176.37  1179.92  1210.28  1212.14
                             1223.94  1251.14  1287.66  1298.71  1309.42
                             1315.25  1325.02  1335.71  1345.80  1354.85
                             1356.35  1401.09  1431.22  1441.53  1447.56
                             1450.32  1450.89  1458.84  1528.28  1552.71
                             1601.07  1626.23  1640.45  1649.42  1658.10
                             1679.82  1715.75  1739.66  1757.33  1773.78
                             1796.83  1801.84  1811.77  1815.83  1842.28
                             1849.07  1874.57  1904.11  1915.96  1938.23
                             1946.37  1953.58  1982.96  1989.16  1992.10
                             2007.11  2024.58  2024.97  2065.04  2067.53
                             2076.26  2078.58  2089.43  2128.04  2135.47
                             2139.44  2171.32  2186.48  2195.78  2213.53
                             2233.28  2249.43  2255.65  2288.33  2346.59
                             2348.52  2354.43  2359.92  2374.27  2376.65
                             2384.17  2385.31  2416.68  2430.41  4583.80
                             4587.07  4589.52  4594.64  4595.61  4604.66
                             4607.64  4618.67  4621.47  4621.94  4644.10
                             4646.61  4653.57  4671.32  4672.66  4681.89

 Zero-point correction=                           0.403194 (Hartree/Particle)
 Thermal correction to Energy=                    0.424234
 Thermal correction to Enthalpy=                  0.425178
 Thermal correction to Gibbs Free Energy=         0.354879
 Sum of electronic and zero-point Energies=          -1380.920009
 Sum of electronic and thermal Energies=             -1380.898968
 Sum of electronic and thermal Enthalpies=           -1380.898024
 Sum of electronic and thermal Free Energies=        -1380.968324

                     E (Thermal)             CV                S
                      KCal/Mol        Cal/Mol-Kelvin    Cal/Mol-Kelvin
 Total                  266.211             94.693            147.958
 Electronic               0.000              0.000              0.000
 Translational            0.889              2.981             44.189
 Rotational               0.889              2.981             36.664
 Vibrational            264.434             88.732             67.106
 Vibration     1          0.593              1.984              5.971
 Vibration     2          0.594              1.983              5.538
 Vibration     3          0.602              1.956              3.646
 Vibration     4          0.603              1.954              3.579
 Vibration     5          0.609              1.931              3.074
 Vibration     6          0.612              1.922              2.920
 Vibration     7          0.614              1.915              2.827
 Vibration     8          0.641              1.829              2.064
 Vibration     9          0.654              1.788              1.846
 Vibration    10          0.662              1.765              1.739
 Vibration    11          0.670              1.740              1.638
 Vibration    12          0.671              1.737              1.629
 Vibration    13          0.691              1.678              1.429
 Vibration    14          0.698              1.658              1.371
 Vibration    15          0.700              1.651              1.352
 Vibration    16          0.713              1.615              1.259
 Vibration    17          0.726              1.579              1.173
 Vibration    18          0.728              1.574              1.163
 Vibration    19          0.741              1.537              1.087
 Vibration    20          0.742              1.534              1.079
 Vibration    21          0.758              1.491              0.999
 Vibration    22          0.761              1.483              0.984
 Vibration    23          0.797              1.391              0.838
 Vibration    24          0.806              1.369              0.806
 Vibration    25          0.826              1.318              0.739
 Vibration    26          0.845              1.274              0.686
 Vibration    27          0.871              1.215              0.620
 Vibration    28          0.872              1.213              0.618
 Vibration    29          0.889              1.174              0.577
 Vibration    30          0.908              1.135              0.540
 Vibration    31          0.909              1.132              0.537
 Vibration    32          0.914              1.120              0.526
 Vibration    33          0.915              1.118              0.524
 Vibration    34          0.942              1.064              0.477
 Vibration    35          0.942              1.064              0.476
 Vibration    36          0.956              1.035              0.453
 Vibration    37          0.963              1.022              0.442
 Vibration    38          0.975              1.000              0.425

 Optimization completed.
    -- Stationary point found.
 Normal termination of Gaussian 16 at Mon Aug 24 09:12:56 2020.
